# vtk DataFile Version 3.0
vtk output
ASCII
DATASET POLYDATA
POINTS 8 float
0 0 0 0 0 1 0 1 0 
0 1 1 1 0 0 1 0 1 
1 1 0 1 1 1 
POLYGONS 12 48
3 0 6 4 
3 0 2 6 
3 0 3 2 
3 0 1 3 
3 2 7 6 
3 2 3 7 
3 4 6 7 
3 4 7 5 
3 0 4 5 
3 0 5 1 
3 1 5 7 
3 1 7 3 

POINT_DATA 8
COLOR_SCALARS RGB 3
0 0 0 0 0 0.784314 0 0.784314 0 
0 0.784314 0.784314 0.784314 0 0 
0.784314 0 0.784314 0.784314 0.784314 0 
0.784314 0.784314 0.784314 
NORMALS Normals float
-0.57735 -0.57735 -0.57735 -0.408248 -0.408248 0.816497 -0.408248 0.816497 -0.408248 
-0.816497 0.408248 0.408248 0.816497 -0.408248 -0.408248 0.408248 -0.816497 0.408248 
0.408248 0.408248 -0.816497 0.57735 0.57735 0.57735 
